 # (required) this must be the first line
  
        2000  atoms
           1  atom types
 
      0.000000000000      31.472000000000  xlo xhi
      0.000000000000      31.472000000000  ylo yhi
      0.000000000000      31.472000000000  zlo zhi
 
Masses
 
            1   183.84000000             # W
 
Atoms # atomic
 
         1    1        0.786800000000       0.786800000000       0.786800000000
         2    1        2.360400000000       2.360400000000       2.360400000000
         3    1        0.786800000000       0.786800000000       3.934000000000
         4    1        2.360400000000       2.360400000000       5.507600000000
         5    1        0.786800000000       0.786800000000       7.081200000000
         6    1        2.360400000000       2.360400000000       8.654800000000
         7    1        0.786800000000       0.786800000000      10.228400000000
         8    1        2.360400000000       2.360400000000      11.802000000000
         9    1        0.786800000000       0.786800000000      13.375600000000
        10    1        2.360400000000       2.360400000000      14.949200000000
        11    1        0.786800000000       0.786800000000      16.522800000000
        12    1        2.360400000000       2.360400000000      18.096400000000
        13    1        0.786800000000       0.786800000000      19.670000000000
        14    1        2.360400000000       2.360400000000      21.243600000000
        15    1        0.786800000000       0.786800000000      22.817200000000
        16    1        2.360400000000       2.360400000000      24.390800000000
        17    1        0.786800000000       0.786800000000      25.964400000000
        18    1        2.360400000000       2.360400000000      27.538000000000
        19    1        0.786800000000       0.786800000000      29.111600000000
        20    1        2.360400000000       2.360400000000      30.685200000000
        21    1        0.786800000000       3.934000000000       0.786800000000
        22    1        2.360400000000       5.507600000000       2.360400000000
        23    1        0.786800000000       3.934000000000       3.934000000000
        24    1        2.360400000000       5.507600000000       5.507600000000
        25    1        0.786800000000       3.934000000000       7.081200000000
        26    1        2.360400000000       5.507600000000       8.654800000000
        27    1        0.786800000000       3.934000000000      10.228400000000
        28    1        2.360400000000       5.507600000000      11.802000000000
        29    1        0.786800000000       3.934000000000      13.375600000000
        30    1        2.360400000000       5.507600000000      14.949200000000
        31    1        0.786800000000       3.934000000000      16.522800000000
        32    1        2.360400000000       5.507600000000      18.096400000000
        33    1        0.786800000000       3.934000000000      19.670000000000
        34    1        2.360400000000       5.507600000000      21.243600000000
        35    1        0.786800000000       3.934000000000      22.817200000000
        36    1        2.360400000000       5.507600000000      24.390800000000
        37    1        0.786800000000       3.934000000000      25.964400000000
        38    1        2.360400000000       5.507600000000      27.538000000000
        39    1        0.786800000000       3.934000000000      29.111600000000
        40    1        2.360400000000       5.507600000000      30.685200000000
        41    1        0.786800000000       7.081200000000       0.786800000000
        42    1        2.360400000000       8.654800000000       2.360400000000
        43    1        0.786800000000       7.081200000000       3.934000000000
        44    1        2.360400000000       8.654800000000       5.507600000000
        45    1        0.786800000000       7.081200000000       7.081200000000
        46    1        2.360400000000       8.654800000000       8.654800000000
        47    1        0.786800000000       7.081200000000      10.228400000000
        48    1        2.360400000000       8.654800000000      11.802000000000
        49    1        0.786800000000       7.081200000000      13.375600000000
        50    1        2.360400000000       8.654800000000      14.949200000000
        51    1        0.786800000000       7.081200000000      16.522800000000
        52    1        2.360400000000       8.654800000000      18.096400000000
        53    1        0.786800000000       7.081200000000      19.670000000000
        54    1        2.360400000000       8.654800000000      21.243600000000
        55    1        0.786800000000       7.081200000000      22.817200000000
        56    1        2.360400000000       8.654800000000      24.390800000000
        57    1        0.786800000000       7.081200000000      25.964400000000
        58    1        2.360400000000       8.654800000000      27.538000000000
        59    1        0.786800000000       7.081200000000      29.111600000000
        60    1        2.360400000000       8.654800000000      30.685200000000
        61    1        0.786800000000      10.228400000000       0.786800000000
        62    1        2.360400000000      11.802000000000       2.360400000000
        63    1        0.786800000000      10.228400000000       3.934000000000
        64    1        2.360400000000      11.802000000000       5.507600000000
        65    1        0.786800000000      10.228400000000       7.081200000000
        66    1        2.360400000000      11.802000000000       8.654800000000
        67    1        0.786800000000      10.228400000000      10.228400000000
        68    1        2.360400000000      11.802000000000      11.802000000000
        69    1        0.786800000000      10.228400000000      13.375600000000
        70    1        2.360400000000      11.802000000000      14.949200000000
        71    1        0.786800000000      10.228400000000      16.522800000000
        72    1        2.360400000000      11.802000000000      18.096400000000
        73    1        0.786800000000      10.228400000000      19.670000000000
        74    1        2.360400000000      11.802000000000      21.243600000000
        75    1        0.786800000000      10.228400000000      22.817200000000
        76    1        2.360400000000      11.802000000000      24.390800000000
        77    1        0.786800000000      10.228400000000      25.964400000000
        78    1        2.360400000000      11.802000000000      27.538000000000
        79    1        0.786800000000      10.228400000000      29.111600000000
        80    1        2.360400000000      11.802000000000      30.685200000000
        81    1        0.786800000000      13.375600000000       0.786800000000
        82    1        2.360400000000      14.949200000000       2.360400000000
        83    1        0.786800000000      13.375600000000       3.934000000000
        84    1        2.360400000000      14.949200000000       5.507600000000
        85    1        0.786800000000      13.375600000000       7.081200000000
        86    1        2.360400000000      14.949200000000       8.654800000000
        87    1        0.786800000000      13.375600000000      10.228400000000
        88    1        2.360400000000      14.949200000000      11.802000000000
        89    1        0.786800000000      13.375600000000      13.375600000000
        90    1        2.360400000000      14.949200000000      14.949200000000
        91    1        0.786800000000      13.375600000000      16.522800000000
        92    1        2.360400000000      14.949200000000      18.096400000000
        93    1        0.786800000000      13.375600000000      19.670000000000
        94    1        2.360400000000      14.949200000000      21.243600000000
        95    1        0.786800000000      13.375600000000      22.817200000000
        96    1        2.360400000000      14.949200000000      24.390800000000
        97    1        0.786800000000      13.375600000000      25.964400000000
        98    1        2.360400000000      14.949200000000      27.538000000000
        99    1        0.786800000000      13.375600000000      29.111600000000
       100    1        2.360400000000      14.949200000000      30.685200000000
       101    1        0.786800000000      16.522800000000       0.786800000000
       102    1        2.360400000000      18.096400000000       2.360400000000
       103    1        0.786800000000      16.522800000000       3.934000000000
       104    1        2.360400000000      18.096400000000       5.507600000000
       105    1        0.786800000000      16.522800000000       7.081200000000
       106    1        2.360400000000      18.096400000000       8.654800000000
       107    1        0.786800000000      16.522800000000      10.228400000000
       108    1        2.360400000000      18.096400000000      11.802000000000
       109    1        0.786800000000      16.522800000000      13.375600000000
       110    1        2.360400000000      18.096400000000      14.949200000000
       111    1        0.786800000000      16.522800000000      16.522800000000
       112    1        2.360400000000      18.096400000000      18.096400000000
       113    1        0.786800000000      16.522800000000      19.670000000000
       114    1        2.360400000000      18.096400000000      21.243600000000
       115    1        0.786800000000      16.522800000000      22.817200000000
       116    1        2.360400000000      18.096400000000      24.390800000000
       117    1        0.786800000000      16.522800000000      25.964400000000
       118    1        2.360400000000      18.096400000000      27.538000000000
       119    1        0.786800000000      16.522800000000      29.111600000000
       120    1        2.360400000000      18.096400000000      30.685200000000
       121    1        0.786800000000      19.670000000000       0.786800000000
       122    1        2.360400000000      21.243600000000       2.360400000000
       123    1        0.786800000000      19.670000000000       3.934000000000
       124    1        2.360400000000      21.243600000000       5.507600000000
       125    1        0.786800000000      19.670000000000       7.081200000000
       126    1        2.360400000000      21.243600000000       8.654800000000
       127    1        0.786800000000      19.670000000000      10.228400000000
       128    1        2.360400000000      21.243600000000      11.802000000000
       129    1        0.786800000000      19.670000000000      13.375600000000
       130    1        2.360400000000      21.243600000000      14.949200000000
       131    1        0.786800000000      19.670000000000      16.522800000000
       132    1        2.360400000000      21.243600000000      18.096400000000
       133    1        0.786800000000      19.670000000000      19.670000000000
       134    1        2.360400000000      21.243600000000      21.243600000000
       135    1        0.786800000000      19.670000000000      22.817200000000
       136    1        2.360400000000      21.243600000000      24.390800000000
       137    1        0.786800000000      19.670000000000      25.964400000000
       138    1        2.360400000000      21.243600000000      27.538000000000
       139    1        0.786800000000      19.670000000000      29.111600000000
       140    1        2.360400000000      21.243600000000      30.685200000000
       141    1        0.786800000000      22.817200000000       0.786800000000
       142    1        2.360400000000      24.390800000000       2.360400000000
       143    1        0.786800000000      22.817200000000       3.934000000000
       144    1        2.360400000000      24.390800000000       5.507600000000
       145    1        0.786800000000      22.817200000000       7.081200000000
       146    1        2.360400000000      24.390800000000       8.654800000000
       147    1        0.786800000000      22.817200000000      10.228400000000
       148    1        2.360400000000      24.390800000000      11.802000000000
       149    1        0.786800000000      22.817200000000      13.375600000000
       150    1        2.360400000000      24.390800000000      14.949200000000
       151    1        0.786800000000      22.817200000000      16.522800000000
       152    1        2.360400000000      24.390800000000      18.096400000000
       153    1        0.786800000000      22.817200000000      19.670000000000
       154    1        2.360400000000      24.390800000000      21.243600000000
       155    1        0.786800000000      22.817200000000      22.817200000000
       156    1        2.360400000000      24.390800000000      24.390800000000
       157    1        0.786800000000      22.817200000000      25.964400000000
       158    1        2.360400000000      24.390800000000      27.538000000000
       159    1        0.786800000000      22.817200000000      29.111600000000
       160    1        2.360400000000      24.390800000000      30.685200000000
       161    1        0.786800000000      25.964400000000       0.786800000000
       162    1        2.360400000000      27.538000000000       2.360400000000
       163    1        0.786800000000      25.964400000000       3.934000000000
       164    1        2.360400000000      27.538000000000       5.507600000000
       165    1        0.786800000000      25.964400000000       7.081200000000
       166    1        2.360400000000      27.538000000000       8.654800000000
       167    1        0.786800000000      25.964400000000      10.228400000000
       168    1        2.360400000000      27.538000000000      11.802000000000
       169    1        0.786800000000      25.964400000000      13.375600000000
       170    1        2.360400000000      27.538000000000      14.949200000000
       171    1        0.786800000000      25.964400000000      16.522800000000
       172    1        2.360400000000      27.538000000000      18.096400000000
       173    1        0.786800000000      25.964400000000      19.670000000000
       174    1        2.360400000000      27.538000000000      21.243600000000
       175    1        0.786800000000      25.964400000000      22.817200000000
       176    1        2.360400000000      27.538000000000      24.390800000000
       177    1        0.786800000000      25.964400000000      25.964400000000
       178    1        2.360400000000      27.538000000000      27.538000000000
       179    1        0.786800000000      25.964400000000      29.111600000000
       180    1        2.360400000000      27.538000000000      30.685200000000
       181    1        0.786800000000      29.111600000000       0.786800000000
       182    1        2.360400000000      30.685200000000       2.360400000000
       183    1        0.786800000000      29.111600000000       3.934000000000
       184    1        2.360400000000      30.685200000000       5.507600000000
       185    1        0.786800000000      29.111600000000       7.081200000000
       186    1        2.360400000000      30.685200000000       8.654800000000
       187    1        0.786800000000      29.111600000000      10.228400000000
       188    1        2.360400000000      30.685200000000      11.802000000000
       189    1        0.786800000000      29.111600000000      13.375600000000
       190    1        2.360400000000      30.685200000000      14.949200000000
       191    1        0.786800000000      29.111600000000      16.522800000000
       192    1        2.360400000000      30.685200000000      18.096400000000
       193    1        0.786800000000      29.111600000000      19.670000000000
       194    1        2.360400000000      30.685200000000      21.243600000000
       195    1        0.786800000000      29.111600000000      22.817200000000
       196    1        2.360400000000      30.685200000000      24.390800000000
       197    1        0.786800000000      29.111600000000      25.964400000000
       198    1        2.360400000000      30.685200000000      27.538000000000
       199    1        0.786800000000      29.111600000000      29.111600000000
       200    1        2.360400000000      30.685200000000      30.685200000000
       201    1        3.934000000000       0.786800000000       0.786800000000
       202    1        5.507600000000       2.360400000000       2.360400000000
       203    1        3.934000000000       0.786800000000       3.934000000000
       204    1        5.507600000000       2.360400000000       5.507600000000
       205    1        3.934000000000       0.786800000000       7.081200000000
       206    1        5.507600000000       2.360400000000       8.654800000000
       207    1        3.934000000000       0.786800000000      10.228400000000
       208    1        5.507600000000       2.360400000000      11.802000000000
       209    1        3.934000000000       0.786800000000      13.375600000000
       210    1        5.507600000000       2.360400000000      14.949200000000
       211    1        3.934000000000       0.786800000000      16.522800000000
       212    1        5.507600000000       2.360400000000      18.096400000000
       213    1        3.934000000000       0.786800000000      19.670000000000
       214    1        5.507600000000       2.360400000000      21.243600000000
       215    1        3.934000000000       0.786800000000      22.817200000000
       216    1        5.507600000000       2.360400000000      24.390800000000
       217    1        3.934000000000       0.786800000000      25.964400000000
       218    1        5.507600000000       2.360400000000      27.538000000000
       219    1        3.934000000000       0.786800000000      29.111600000000
       220    1        5.507600000000       2.360400000000      30.685200000000
       221    1        3.934000000000       3.934000000000       0.786800000000
       222    1        5.507600000000       5.507600000000       2.360400000000
       223    1        3.934000000000       3.934000000000       3.934000000000
       224    1        5.507600000000       5.507600000000       5.507600000000
       225    1        3.934000000000       3.934000000000       7.081200000000
       226    1        5.507600000000       5.507600000000       8.654800000000
       227    1        3.934000000000       3.934000000000      10.228400000000
       228    1        5.507600000000       5.507600000000      11.802000000000
       229    1        3.934000000000       3.934000000000      13.375600000000
       230    1        5.507600000000       5.507600000000      14.949200000000
       231    1        3.934000000000       3.934000000000      16.522800000000
       232    1        5.507600000000       5.507600000000      18.096400000000
       233    1        3.934000000000       3.934000000000      19.670000000000
       234    1        5.507600000000       5.507600000000      21.243600000000
       235    1        3.934000000000       3.934000000000      22.817200000000
       236    1        5.507600000000       5.507600000000      24.390800000000
       237    1        3.934000000000       3.934000000000      25.964400000000
       238    1        5.507600000000       5.507600000000      27.538000000000
       239    1        3.934000000000       3.934000000000      29.111600000000
       240    1        5.507600000000       5.507600000000      30.685200000000
       241    1        3.934000000000       7.081200000000       0.786800000000
       242    1        5.507600000000       8.654800000000       2.360400000000
       243    1        3.934000000000       7.081200000000       3.934000000000
       244    1        5.507600000000       8.654800000000       5.507600000000
       245    1        3.934000000000       7.081200000000       7.081200000000
       246    1        5.507600000000       8.654800000000       8.654800000000
       247    1        3.934000000000       7.081200000000      10.228400000000
       248    1        5.507600000000       8.654800000000      11.802000000000
       249    1        3.934000000000       7.081200000000      13.375600000000
       250    1        5.507600000000       8.654800000000      14.949200000000
       251    1        3.934000000000       7.081200000000      16.522800000000
       252    1        5.507600000000       8.654800000000      18.096400000000
       253    1        3.934000000000       7.081200000000      19.670000000000
       254    1        5.507600000000       8.654800000000      21.243600000000
       255    1        3.934000000000       7.081200000000      22.817200000000
       256    1        5.507600000000       8.654800000000      24.390800000000
       257    1        3.934000000000       7.081200000000      25.964400000000
       258    1        5.507600000000       8.654800000000      27.538000000000
       259    1        3.934000000000       7.081200000000      29.111600000000
       260    1        5.507600000000       8.654800000000      30.685200000000
       261    1        3.934000000000      10.228400000000       0.786800000000
       262    1        5.507600000000      11.802000000000       2.360400000000
       263    1        3.934000000000      10.228400000000       3.934000000000
       264    1        5.507600000000      11.802000000000       5.507600000000
       265    1        3.934000000000      10.228400000000       7.081200000000
       266    1        5.507600000000      11.802000000000       8.654800000000
       267    1        3.934000000000      10.228400000000      10.228400000000
       268    1        5.507600000000      11.802000000000      11.802000000000
       269    1        3.934000000000      10.228400000000      13.375600000000
       270    1        5.507600000000      11.802000000000      14.949200000000
       271    1        3.934000000000      10.228400000000      16.522800000000
       272    1        5.507600000000      11.802000000000      18.096400000000
       273    1        3.934000000000      10.228400000000      19.670000000000
       274    1        5.507600000000      11.802000000000      21.243600000000
       275    1        3.934000000000      10.228400000000      22.817200000000
       276    1        5.507600000000      11.802000000000      24.390800000000
       277    1        3.934000000000      10.228400000000      25.964400000000
       278    1        5.507600000000      11.802000000000      27.538000000000
       279    1        3.934000000000      10.228400000000      29.111600000000
       280    1        5.507600000000      11.802000000000      30.685200000000
       281    1        3.934000000000      13.375600000000       0.786800000000
       282    1        5.507600000000      14.949200000000       2.360400000000
       283    1        3.934000000000      13.375600000000       3.934000000000
       284    1        5.507600000000      14.949200000000       5.507600000000
       285    1        3.934000000000      13.375600000000       7.081200000000
       286    1        5.507600000000      14.949200000000       8.654800000000
       287    1        3.934000000000      13.375600000000      10.228400000000
       288    1        5.507600000000      14.949200000000      11.802000000000
       289    1        3.934000000000      13.375600000000      13.375600000000
       290    1        5.507600000000      14.949200000000      14.949200000000
       291    1        3.934000000000      13.375600000000      16.522800000000
       292    1        5.507600000000      14.949200000000      18.096400000000
       293    1        3.934000000000      13.375600000000      19.670000000000
       294    1        5.507600000000      14.949200000000      21.243600000000
       295    1        3.934000000000      13.375600000000      22.817200000000
       296    1        5.507600000000      14.949200000000      24.390800000000
       297    1        3.934000000000      13.375600000000      25.964400000000
       298    1        5.507600000000      14.949200000000      27.538000000000
       299    1        3.934000000000      13.375600000000      29.111600000000
       300    1        5.507600000000      14.949200000000      30.685200000000
       301    1        3.934000000000      16.522800000000       0.786800000000
       302    1        5.507600000000      18.096400000000       2.360400000000
       303    1        3.934000000000      16.522800000000       3.934000000000
       304    1        5.507600000000      18.096400000000       5.507600000000
       305    1        3.934000000000      16.522800000000       7.081200000000
       306    1        5.507600000000      18.096400000000       8.654800000000
       307    1        3.934000000000      16.522800000000      10.228400000000
       308    1        5.507600000000      18.096400000000      11.802000000000
       309    1        3.934000000000      16.522800000000      13.375600000000
       310    1        5.507600000000      18.096400000000      14.949200000000
       311    1        3.934000000000      16.522800000000      16.522800000000
       312    1        5.507600000000      18.096400000000      18.096400000000
       313    1        3.934000000000      16.522800000000      19.670000000000
       314    1        5.507600000000      18.096400000000      21.243600000000
       315    1        3.934000000000      16.522800000000      22.817200000000
       316    1        5.507600000000      18.096400000000      24.390800000000
       317    1        3.934000000000      16.522800000000      25.964400000000
       318    1        5.507600000000      18.096400000000      27.538000000000
       319    1        3.934000000000      16.522800000000      29.111600000000
       320    1        5.507600000000      18.096400000000      30.685200000000
       321    1        3.934000000000      19.670000000000       0.786800000000
       322    1        5.507600000000      21.243600000000       2.360400000000
       323    1        3.934000000000      19.670000000000       3.934000000000
       324    1        5.507600000000      21.243600000000       5.507600000000
       325    1        3.934000000000      19.670000000000       7.081200000000
       326    1        5.507600000000      21.243600000000       8.654800000000
       327    1        3.934000000000      19.670000000000      10.228400000000
       328    1        5.507600000000      21.243600000000      11.802000000000
       329    1        3.934000000000      19.670000000000      13.375600000000
       330    1        5.507600000000      21.243600000000      14.949200000000
       331    1        3.934000000000      19.670000000000      16.522800000000
       332    1        5.507600000000      21.243600000000      18.096400000000
       333    1        3.934000000000      19.670000000000      19.670000000000
       334    1        5.507600000000      21.243600000000      21.243600000000
       335    1        3.934000000000      19.670000000000      22.817200000000
       336    1        5.507600000000      21.243600000000      24.390800000000
       337    1        3.934000000000      19.670000000000      25.964400000000
       338    1        5.507600000000      21.243600000000      27.538000000000
       339    1        3.934000000000      19.670000000000      29.111600000000
       340    1        5.507600000000      21.243600000000      30.685200000000
       341    1        3.934000000000      22.817200000000       0.786800000000
       342    1        5.507600000000      24.390800000000       2.360400000000
       343    1        3.934000000000      22.817200000000       3.934000000000
       344    1        5.507600000000      24.390800000000       5.507600000000
       345    1        3.934000000000      22.817200000000       7.081200000000
       346    1        5.507600000000      24.390800000000       8.654800000000
       347    1        3.934000000000      22.817200000000      10.228400000000
       348    1        5.507600000000      24.390800000000      11.802000000000
       349    1        3.934000000000      22.817200000000      13.375600000000
       350    1        5.507600000000      24.390800000000      14.949200000000
       351    1        3.934000000000      22.817200000000      16.522800000000
       352    1        5.507600000000      24.390800000000      18.096400000000
       353    1        3.934000000000      22.817200000000      19.670000000000
       354    1        5.507600000000      24.390800000000      21.243600000000
       355    1        3.934000000000      22.817200000000      22.817200000000
       356    1        5.507600000000      24.390800000000      24.390800000000
       357    1        3.934000000000      22.817200000000      25.964400000000
       358    1        5.507600000000      24.390800000000      27.538000000000
       359    1        3.934000000000      22.817200000000      29.111600000000
       360    1        5.507600000000      24.390800000000      30.685200000000
       361    1        3.934000000000      25.964400000000       0.786800000000
       362    1        5.507600000000      27.538000000000       2.360400000000
       363    1        3.934000000000      25.964400000000       3.934000000000
       364    1        5.507600000000      27.538000000000       5.507600000000
       365    1        3.934000000000      25.964400000000       7.081200000000
       366    1        5.507600000000      27.538000000000       8.654800000000
       367    1        3.934000000000      25.964400000000      10.228400000000
       368    1        5.507600000000      27.538000000000      11.802000000000
       369    1        3.934000000000      25.964400000000      13.375600000000
       370    1        5.507600000000      27.538000000000      14.949200000000
       371    1        3.934000000000      25.964400000000      16.522800000000