 # (required) this must be the first line
  
        1296  atoms
           1  atom types
 
      0.000000000000      26.704877541004  xlo xhi
      0.000000000000      46.254204710923  ylo yhi
      0.000000000000      16.353330904742  zlo zhi
 
Masses
 
            1   183.84000000             # W
 
Atoms # atomic
 
         1    1        1.112703230875       0.642419509874       0.454259191798
         2    1        3.338109692625       4.496936569118       0.454259191798
         3    1        3.338109692625       1.927258529622       1.362777575395
         4    1        1.112703230875       5.781775588865       1.362777575395
         5    1        1.112703230875       3.212097549370       2.271295958992
         6    1        3.338109692625       7.066614608613       2.271295958992
         7    1        1.112703230875       0.642419509874       3.179814342589
         8    1        3.338109692625       4.496936569118       3.179814342589
         9    1        3.338109692625       1.927258529622       4.088332726186
        10    1        1.112703230875       5.781775588865       4.088332726186
        11    1        1.112703230875       3.212097549370       4.996851109782
        12    1        3.338109692625       7.066614608613       4.996851109782
        13    1        1.112703230875       0.642419509874       5.905369493379
        14    1        3.338109692625       4.496936569118       5.905369493379
        15    1        3.338109692625       1.927258529622       6.813887876976
        16    1        1.112703230875       5.781775588865       6.813887876976
        17    1        1.112703230875       3.212097549370       7.722406260573
        18    1        3.338109692625       7.066614608613       7.722406260573
        19    1        1.112703230875       0.642419509874       8.630924644170
        20    1        3.338109692625       4.496936569118       8.630924644170
        21    1        3.338109692625       1.927258529622       9.539443027766
        22    1        1.112703230875       5.781775588865       9.539443027766
        23    1        1.112703230875       3.212097549370      10.447961411363
        24    1        3.338109692625       7.066614608613      10.447961411363
        25    1        1.112703230875       0.642419509874      11.356479794960
        26    1        3.338109692625       4.496936569118      11.356479794960
        27    1        3.338109692625       1.927258529622      12.264998178557
        28    1        1.112703230875       5.781775588865      12.264998178557
        29    1        1.112703230875       3.212097549370      13.173516562154
        30    1        3.338109692625       7.066614608613      13.173516562154
        31    1        1.112703230875       0.642419509874      14.082034945750
        32    1        3.338109692625       4.496936569118      14.082034945750
        33    1        3.338109692625       1.927258529622      14.990553329347
        34    1        1.112703230875       5.781775588865      14.990553329347
        35    1        1.112703230875       3.212097549370      15.899071712944
        36    1        3.338109692625       7.066614608613      15.899071712944
        37    1        1.112703230875       8.351453628361       0.454259191798
        38    1        3.338109692625      12.205970687605       0.454259191798
        39    1        3.338109692625       9.636292648109       1.362777575395
        40    1        1.112703230875      13.490809707353       1.362777575395
        41    1        1.112703230875      10.921131667857       2.271295958992
        42    1        3.338109692625      14.775648727100       2.271295958992
        43    1        1.112703230875       8.351453628361       3.179814342589
        44    1        3.338109692625      12.205970687605       3.179814342589
        45    1        3.338109692625       9.636292648109       4.088332726186
        46    1        1.112703230875      13.490809707353       4.088332726186
        47    1        1.112703230875      10.921131667857       4.996851109782
        48    1        3.338109692625      14.775648727100       4.996851109782
        49    1        1.112703230875       8.351453628361       5.905369493379
        50    1        3.338109692625      12.205970687605       5.905369493379
        51    1        3.338109692625       9.636292648109       6.813887876976
        52    1        1.112703230875      13.490809707353       6.813887876976
        53    1        1.112703230875      10.921131667857       7.722406260573
        54    1        3.338109692625      14.775648727100       7.722406260573
        55    1        1.112703230875       8.351453628361       8.630924644170
        56    1        3.338109692625      12.205970687605       8.630924644170
        57    1        3.338109692625       9.636292648109       9.539443027766
        58    1        1.112703230875      13.490809707353       9.539443027766
        59    1        1.112703230875      10.921131667857      10.447961411363
        60    1        3.338109692625      14.775648727100      10.447961411363
        61    1        1.112703230875       8.351453628361      11.356479794960
        62    1        3.338109692625      12.205970687605      11.356479794960
        63    1        3.338109692625       9.636292648109      12.264998178557
        64    1        1.112703230875      13.490809707353      12.264998178557
        65    1        1.112703230875      10.921131667857      13.173516562154
        66    1        3.338109692625      14.775648727100      13.173516562154
        67    1        1.112703230875       8.351453628361      14.082034945750
        68    1        3.338109692625      12.205970687605      14.082034945750
        69    1        3.338109692625       9.636292648109      14.990553329347
        70    1        1.112703230875      13.490809707353      14.990553329347
        71    1        1.112703230875      10.921131667857      15.899071712944
        72    1        3.338109692625      14.775648727100      15.899071712944
        73    1        1.112703230875      16.060487746848       0.454259191798
        74    1        3.338109692625      19.915004806092       0.454259191798
        75    1        3.338109692625      17.345326766596       1.362777575395
        76    1        1.112703230875      21.199843825840       1.362777575395
        77    1        1.112703230875      18.630165786344       2.271295958992
        78    1        3.338109692625      22.484682845588       2.271295958992
        79    1        1.112703230875      16.060487746848       3.179814342589
        80    1        3.338109692625      19.915004806092       3.179814342589
        81    1        3.338109692625      17.345326766596       4.088332726186
        82    1        1.112703230875      21.199843825840       4.088332726186
        83    1        1.112703230875      18.630165786344       4.996851109782
        84    1        3.338109692625      22.484682845588       4.996851109782
        85    1        1.112703230875      16.060487746848       5.905369493379
        86    1        3.338109692625      19.915004806092       5.905369493379
        87    1        3.338109692625      17.345326766596       6.813887876976
        88    1        1.112703230875      21.199843825840       6.813887876976
        89    1        1.112703230875      18.630165786344       7.722406260573
        90    1        3.338109692625      22.484682845588       7.722406260573
        91    1        1.112703230875      16.060487746848       8.630924644170
        92    1        3.338109692625      19.915004806092       8.630924644170
        93    1        3.338109692625      17.345326766596       9.539443027766
        94    1        1.112703230875      21.199843825840       9.539443027766
        95    1        1.112703230875      18.630165786344      10.447961411363
        96    1        3.338109692625      22.484682845588      10.447961411363
        97    1        1.112703230875      16.060487746848      11.356479794960
        98    1        3.338109692625      19.915004806092      11.356479794960
        99    1        3.338109692625      17.345326766596      12.264998178557
       100    1        1.112703230875      21.199843825840      12.264998178557
       101    1        1.112703230875      18.630165786344      13.173516562154
       102    1        3.338109692625      22.484682845588      13.173516562154
       103    1        1.112703230875      16.060487746848      14.082034945750
       104    1        3.338109692625      19.915004806092      14.082034945750
       105    1        3.338109692625      17.345326766596      14.990553329347
       106    1        1.112703230875      21.199843825840      14.990553329347
       107    1        1.112703230875      18.630165786344      15.899071712944
       108    1        3.338109692625      22.484682845588      15.899071712944
       109    1        1.112703230875      23.769521865336       0.454259191798
       110    1        3.338109692625      27.624038924579       0.454259191798
       111    1        3.338109692625      25.054360885083       1.362777575395
       112    1        1.112703230875      28.908877944327       1.362777575395
       113    1        1.112703230875      26.339199904831       2.271295958992
       114    1        3.338109692625      30.193716964075       2.271295958992
       115    1        1.112703230875      23.769521865336       3.179814342589
       116    1        3.338109692625      27.624038924579       3.179814342589
       117    1        3.338109692625      25.054360885083       4.088332726186
       118    1        1.112703230875      28.908877944327       4.088332726186
       119    1        1.112703230875      26.339199904831       4.996851109782
       120    1        3.338109692625      30.193716964075       4.996851109782
       121    1        1.112703230875      23.769521865336       5.905369493379
       122    1        3.338109692625      27.624038924579       5.905369493379
       123    1        3.338109692625      25.054360885083       6.813887876976
       124    1        1.112703230875      28.908877944327       6.813887876976
       125    1        1.112703230875      26.339199904831       7.722406260573
       126    1        3.338109692625      30.193716964075       7.722406260573
       127    1        1.112703230875      23.769521865336       8.630924644170
       128    1        3.338109692625      27.624038924579       8.630924644170
       129    1        3.338109692625      25.054360885083       9.539443027766
       130    1        1.112703230875      28.908877944327       9.539443027766
       131    1        1.112703230875      26.339199904831      10.447961411363
       132    1        3.338109692625      30.193716964075      10.447961411363
       133    1        1.112703230875      23.769521865336      11.356479794960
       134    1        3.338109692625      27.624038924579      11.356479794960
       135    1        3.338109692625      25.054360885083      12.264998178557
       136    1        1.112703230875      28.908877944327      12.264998178557
       137    1        1.112703230875      26.339199904831      13.173516562154
       138    1        3.338109692625      30.193716964075      13.173516562154
       139    1        1.112703230875      23.769521865336      14.082034945750
       140    1        3.338109692625      27.624038924579      14.082034945750
       141    1        3.338109692625      25.054360885083      14.990553329347
       142    1        1.112703230875      28.908877944327      14.990553329347
       143    1        1.112703230875      26.339199904831      15.899071712944
       144    1        3.338109692625      30.193716964075      15.899071712944
       145    1        1.112703230875      31.478555983823       0.454259191798
       146    1        3.338109692625      35.333073043066       0.454259191798
       147    1        3.338109692625      32.763395003571       1.362777575395
       148    1        1.112703230875      36.617912062814       1.362777575395
       149    1        1.112703230875      34.048234023319       2.271295958992
       150    1        3.338109692625      37.902751082562       2.271295958992
       151    1        1.112703230875      31.478555983823       3.179814342589
       152    1        3.338109692625      35.333073043066       3.179814342589
       153    1        3.338109692625      32.763395003571       4.088332726186
       154    1        1.112703230875      36.617912062814       4.088332726186
       155    1        1.112703230875      34.048234023319       4.996851109782
       156    1        3.338109692625      37.902751082562       4.996851109782
       157    1        1.112703230875      31.478555983823       5.905369493379
       158    1        3.338109692625      35.333073043066       5.905369493379
       159    1        3.338109692625      32.763395003571       6.813887876976
       160    1        1.112703230875      36.617912062814       6.813887876976
       161    1        1.112703230875      34.048234023319       7.722406260573
       162    1        3.338109692625      37.902751082562       7.722406260573
       163    1        1.112703230875      31.478555983823       8.630924644170
       164    1        3.338109692625      35.333073043066       8.630924644170
       165    1        3.338109692625      32.763395003571       9.539443027766
       166    1        1.112703230875      36.617912062814       9.539443027766
       167    1        1.112703230875      34.048234023319      10.447961411363
       168    1        3.338109692625      37.902751082562      10.447961411363
       169    1        1.112703230875      31.478555983823      11.356479794960
       170    1        3.338109692625      35.333073043066      11.356479794960
       171    1        3.338109692625      32.763395003571      12.264998178557
       172    1        1.112703230875      36.617912062814      12.264998178557
       173    1        1.112703230875      34.048234023319      13.173516562154
       174    1        3.338109692625      37.902751082562      13.173516562154
       175    1        1.112703230875      31.478555983823      14.082034945750
       176    1        3.338109692625      35.333073043066      14.082034945750
       177    1        3.338109692625      32.763395003571      14.990553329347
       178    1        1.112703230875      36.617912062814      14.990553329347
       179    1        1.112703230875      34.048234023319      15.899071712944
       180    1        3.338109692625      37.902751082562      15.899071712944
       181    1        1.112703230875      39.187590102310       0.454259191798
       182    1        3.338109692625      43.042107161554       0.454259191798
       183    1        3.338109692625      40.472429122058       1.362777575395
       184    1        1.112703230875      44.326946181301       1.362777575395
       185    1        1.112703230875      41.757268141806       2.271295958992
       186    1        3.338109692625      45.611785201049       2.271295958992
       187    1        1.112703230875      39.187590102310       3.179814342589
       188    1        3.338109692625      43.042107161554       3.179814342589
       189    1        3.338109692625      40.472429122058       4.088332726186
       190    1        1.112703230875      44.326946181301       4.088332726186
       191    1        1.112703230875      41.757268141806       4.996851109782
       192    1        3.338109692625      45.611785201049       4.996851109782
       193    1        1.112703230875      39.187590102310       5.905369493379
       194    1        3.338109692625      43.042107161554       5.905369493379
       195    1        3.338109692625      40.472429122058       6.813887876976
       196    1        1.112703230875      44.326946181301       6.813887876976
       197    1        1.112703230875      41.757268141806       7.722406260573
       198    1        3.338109692625      45.611785201049       7.722406260573
       199    1        1.112703230875      39.187590102310       8.630924644170
       200    1        3.338109692625      43.042107161554       8.630924644170
       201    1        3.338109692625      40.472429122058       9.539443027766
       202    1        1.112703230875      44.326946181301       9.539443027766
       203    1        1.112703230875      41.757268141806      10.447961411363
       204    1        3.338109692625      45.611785201049      10.447961411363
       205    1        1.112703230875      39.187590102310      11.356479794960
       206    1        3.338109692625      43.042107161554      11.356479794960
       207    1        3.338109692625      40.472429122058      12.264998178557
       208    1        1.112703230875      44.326946181301      12.264998178557
       209    1        1.112703230875      41.757268141806      13.173516562154
       210    1        3.338109692625      45.611785201049      13.173516562154
       211    1        1.112703230875      39.187590102310      14.082034945750
       212    1        3.338109692625      43.042107161554      14.082034945750
       213    1        3.338109692625      40.472429122058      14.990553329347
       214    1        1.112703230875      44.326946181301      14.990553329347
       215    1        1.112703230875      41.757268141806      15.899071712944
       216    1        3.338109692625      45.611785201049      15.899071712944
       217    1        5.563516154376       0.642419509874       0.454259191798
       218    1        7.788922616126       4.496936569118       0.454259191798
       219    1        7.788922616126       1.927258529622       1.362777575395
       220    1        5.563516154376       5.781775588865       1.362777575395
       221    1        5.563516154376       3.212097549370       2.271295958992
       222    1        7.788922616126       7.066614608613       2.271295958992
       223    1        5.563516154376       0.642419509874       3.179814342589
       224    1        7.788922616126       4.496936569118       3.179814342589
       225    1        7.788922616126       1.927258529622       4.088332726186
       226    1        5.563516154376       5.781775588865       4.088332726186
       227    1        5.563516154376       3.212097549370       4.996851109782
       228    1        7.788922616126       7.066614608613       4.996851109782
       229    1        5.563516154376       0.642419509874       5.905369493379
       230    1        7.788922616126       4.496936569118       5.905369493379
       231    1        7.788922616126       1.927258529622       6.813887876976
       232    1        5.563516154376       5.781775588865       6.813887876976
       233    1        5.563516154376       3.212097549370       7.722406260573
       234    1        7.788922616126       7.066614608613       7.722406260573
       235    1        5.563516154376       0.642419509874       8.630924644170
       236    1        7.788922616126       4.496936569118       8.630924644170
       237    1        7.788922616126       1.927258529622       9.539443027766
       238    1        5.563516154376       5.781775588865       9.539443027766
       239    1        5.563516154376       3.212097549370      10.447961411363
       240    1        7.788922616126       7.066614608613      10.447961411363
       241    1        5.563516154376       0.642419509874      11.356479794960
       242    1        7.788922616126       4.496936569118      11.356479794960
       243    1        7.788922616126       1.927258529622      12.264998178557
       244    1        5.563516154376       5.781775588865      12.264998178557
       245    1        5.563516154376       3.212097549370      13.173516562154
       246    1        7.788922616126       7.066614608613      13.173516562154
       247    1        5.563516154376       0.642419509874      14.082034945750
       248    1        7.788922616126       4.496936569118      14.082034945750
       249    1        7.788922616126       1.927258529622      14.990553329347
       250    1        5.563516154376       5.781775588865      14.990553329347
       251    1        5.563516154376       3.212097549370      15.899071712944
       252    1        7.788922616126       7.066614608613      15.899071712944
       253    1        5.563516154376       8.351453628361       0.454259191798
       254    1        7.788922616126      12.205970687605       0.454259191798
       255    1        7.788922616126       9.636292648109       1.362777575395
       256    1        5.563516154376      13.490809707353       1.362777575395
       257    1        5.563516154376      10.921131667857       2.271295958992
       258    1        7.788922616126      14.775648727100       2.271295958992
       259    1        5.563516154376       8.351453628361       3.179814342589
       260    1        7.788922616126      12.205970687605       3.179814342589
       261    1        7.788922616126       9.636292648109       4.088332726186
       262    1        5.563516154376      13.490809707353       4.088332726186
       263    1        5.563516154376      10.921131667857       4.996851109782
       264    1        7.788922616126      14.775648727100       4.996851109782
       265    1        5.563516154376       8.351453628361       5.905369493379
       266    1        7.788922616126      12.205970687605       5.905369493379
       267    1        7.788922616126       9.636292648109       6.813887876976
       268    1        5.563516154376      13.490809707353       6.813887876976
       269    1        5.563516154376      10.921131667857       7.722406260573
       270    1        7.788922616126      14.775648727100       7.722406260573
       271    1        5.563516154376       8.351453628361       8.630924644170
       272    1        7.788922616126      12.205970687605       8.630924644170
       273    1        7.788922616126       9.636292648109       9.539443027766
       274    1        5.563516154376      13.490809707353       9.539443027766
       275    1        5.563516154376      10.921131667857      10.447961411363
       276    1        7.788922616126      14.775648727100      10.447961411363
       277    1        5.563516154376       8.351453628361      11.356479794960
       278    1        7.788922616126      12.205970687605      11.356479794960
       279    1        7.788922616126       9.636292648109      12.264998178557
       280    1        5.563516154376      13.490809707353      12.264998178557
       281    1        5.563516154376      10.921131667857      13.173516562154
       282    1        7.788922616126      14.775648727100      13.173516562154
       283    1        5.563516154376       8.351453628361      14.082034945750
       284    1        7.788922616126      12.205970687605      14.082034945750
       285    1        7.788922616126       9.636292648109      14.990553329347
       286    1        5.563516154376      13.490809707353      14.990553329347
       287    1        5.563516154376      10.921131667857      15.899071712944
       288    1        7.788922616126      14.775648727100      15.899071712944
       289    1        5.563516154376      16.060487746848       0.454259191798
       290    1        7.788922616126      19.915004806092       0.454259191798
       291    1        7.788922616126      17.345326766596       1.362777575395
       292    1        5.563516154376      21.199843825840       1.362777575395
       293    1        5.563516154376      18.630165786344       2.271295958992
       294    1        7.788922616126      22.484682845588       2.271295958992
       295    1        5.563516154376      16.060487746848       3.179814342589
       296    1        7.788922616126      19.915004806092       3.179814342589
       297    1        7.788922616126      17.345326766596       4.088332726186
       298    1        5.563516154376      21.199843825840       4.088332726186
       299    1        5.563516154376      18.630165786344       4.996851109782
       300    1        7.788922616126      22.484682845588       4.996851109782
       301    1        5.563516154376      16.060487746848       5.905369493379
       302    1        7.788922616126      19.915004806092       5.905369493379
       303    1        7.788922616126      17.345326766596       6.813887876976
       304    1        5.563516154376      21.199843825840       6.813887876976
       305    1        5.563516154376      18.630165786344       7.722406260573
       306    1        7.788922616126      22.484682845588       7.722406260573
       307    1        5.563516154376      16.060487746848       8.630924644170
       308    1        7.788922616126      19.915004806092       8.630924644170
       309    1        7.788922616126      17.345326766596       9.539443027766
       310    1        5.563516154376      21.199843825840       9.539443027766
       311    1        5.563516154376      18.630165786344      10.447961411363
       312    1        7.788922616126      22.484682845588      10.447961411363
       313    1        5.563516154376      16.060487746848      11.356479794960
       314    1        7.788922616126      19.915004806092      11.356479794960
       315    1        7.788922616126      17.345326766596      12.264998178557
       316    1        5.563516154376      21.199843825840      12.264998178557
       317    1        5.563516154376      18.630165786344      13.173516562154
       318    1        7.788922616126      22.484682845588      13.173516562154
       319    1        5.563516154376      16.060487746848      14.082034945750
       320    1        7.788922616126      19.915004806092      14.082034945750
       321    1        7.788922616126      17.345326766596      14.990553329347
       322    1        5.563516154376      21.199843825840      14.990553329347
       323    1        5.563516154376      18.630165786344      15.899071712944
       324    1        7.788922616126      22.484682845588      15.899071712944
       325    1        5.563516154376      23.769521865336       0.454259191798
       326    1        7.788922616126      27.624038924579       0.454259191798
       327    1        7.788922616126      25.054360885083       1.362777575395
       328    1        5.563516154376      28.908877944327       1.362777575395
       329    1        5.563516154376      26.339199904831       2.271295958992
       330    1        7.788922616126      30.193716964075       2.271295958992
       331    1        5.563516154376      23.769521865336       3.179814342589
       332    1        7.788922616126      27.624038924579       3.179814342589
       333    1        7.788922616126      25.054360885083       4.088332726186
       334    1        5.563516154376      28.908877944327       4.088332726186
       335    1        5.563516154376      26.339199904831       4.996851109782
       336    1        7.788922616126      30.193716964075       4.996851109782
       337    1        5.563516154376      23.769521865336       5.905369493379
       338    1        7.788922616126      27.624038924579       5.905369493379
       339    1        7.788922616126      25.054360885083       6.813887876976
       340    1        5.563516154376      28.908877944327       6.813887876976
       341    1        5.563516154376      26.339199904831       7.722406260573
       342    1        7.788922616126      30.193716964075       7.722406260573
       343    1        5.563516154376      23.769521865336       8.630924644170
       344    1        7.788922616126      27.624038924579       8.630924644170
       345    1        7.788922616126      25.054360885083       9.539443027766
       346    1        5.563516154376      28.908877944327       9.539443027766
       347    1        5.563516154376      26.339199904831      10.447961411363
       348    1        7.788922616126      30.193716964075      10.447961411363
       349    1        5.563516154376      23.769521865336      11.356479794960
       350    1        7.788922616126      27.624038924579      11.356479794960
       351    1        7.788922616126      25.054360885083      12.264998178557
       352    1        5.563516154376      28.908877944327      12.264998178557
       353    1        5.563516154376      26.339199904831      13.173516562154
       354    1        7.788922616126      30.193716964075      13.173516562154
       355    1        5.563516154376      23.769521865336      14.082034945750
       356    1        7.788922616126      27.624038924579      14.082034945750
       357    1        7.788922616126      25.054360885083      14.990553329347
       358    1        5.563516154376      28.908877944327      14.990553329347
       359    1        5.563516154376      26.339199904831      15.899071712944
       360    1        7.788922616126      30.193716964075      15.899071712944
       361    1        5.563516154376      31.478555983823       0.454259191798
       362    1        7.788922616126      35.333073043066       0.454259191798
       363    1        7.788922616126      32.763395003571       1.362777575395
       364    1        5.563516154376      36.617912062814       1.362777575395
       365    1        5.563516154376      34.048234023319       2.271295958992
       366    1        7.788922616126      37.902751082562       2.271295958992
       367    1        5.563516154376      31.478555983823       3.179814342589
       368    1        7.788922616126      35.333073043066       3.179814342589
       369    1        7.788922616126      32.763395003571       4.088332726186
       370    1        5.563516154376      36.617912062814       4.088332726186
       371    1        5.563516154376      34.048234023319       4.996851109782