 # (required) this must be the first line
  
        4000  atoms
           1  atom types
 
      0.000000000000      31.472000000000  xlo xhi
      0.000000000000      44.508129235006  ylo yhi
      0.000000000000      44.508129235006  zlo zhi
 
Masses
 
            1   183.84000000             # W
 
Atoms # atomic
 
         1    1        0.786800000000       1.112703230875       1.112703230875
         2    1        2.360400000000       3.338109692625       1.112703230875
         3    1        0.786800000000       3.338109692625       3.338109692625
         4    1        2.360400000000       1.112703230875       3.338109692625
         5    1        0.786800000000       1.112703230875       5.563516154376
         6    1        2.360400000000       3.338109692625       5.563516154376
         7    1        0.786800000000       3.338109692625       7.788922616126
         8    1        2.360400000000       1.112703230875       7.788922616126
         9    1        0.786800000000       1.112703230875      10.014329077876
        10    1        2.360400000000       3.338109692625      10.014329077876
        11    1        0.786800000000       3.338109692625      12.239735539627
        12    1        2.360400000000       1.112703230875      12.239735539627
        13    1        0.786800000000       1.112703230875      14.465142001377
        14    1        2.360400000000       3.338109692625      14.465142001377
        15    1        0.786800000000       3.338109692625      16.690548463127
        16    1        2.360400000000       1.112703230875      16.690548463127
        17    1        0.786800000000       1.112703230875      18.915954924878
        18    1        2.360400000000       3.338109692625      18.915954924878
        19    1        0.786800000000       3.338109692625      21.141361386628
        20    1        2.360400000000       1.112703230875      21.141361386628
        21    1        0.786800000000       1.112703230875      23.366767848378
        22    1        2.360400000000       3.338109692625      23.366767848378
        23    1        0.786800000000       3.338109692625      25.592174310129
        24    1        2.360400000000       1.112703230875      25.592174310129
        25    1        0.786800000000       1.112703230875      27.817580771879
        26    1        2.360400000000       3.338109692625      27.817580771879
        27    1        0.786800000000       3.338109692625      30.042987233629
        28    1        2.360400000000       1.112703230875      30.042987233629
        29    1        0.786800000000       1.112703230875      32.268393695379
        30    1        2.360400000000       3.338109692625      32.268393695379
        31    1        0.786800000000       3.338109692625      34.493800157130
        32    1        2.360400000000       1.112703230875      34.493800157130
        33    1        0.786800000000       1.112703230875      36.719206618880
        34    1        2.360400000000       3.338109692625      36.719206618880
        35    1        0.786800000000       3.338109692625      38.944613080630
        36    1        2.360400000000       1.112703230875      38.944613080630
        37    1        0.786800000000       1.112703230875      41.170019542381
        38    1        2.360400000000       3.338109692625      41.170019542381
        39    1        0.786800000000       3.338109692625      43.395426004131
        40    1        2.360400000000       1.112703230875      43.395426004131
        41    1        0.786800000000       5.563516154376       1.112703230875
        42    1        2.360400000000       7.788922616126       1.112703230875
        43    1        0.786800000000       7.788922616126       3.338109692625
        44    1        2.360400000000       5.563516154376       3.338109692625
        45    1        0.786800000000       5.563516154376       5.563516154376
        46    1        2.360400000000       7.788922616126       5.563516154376
        47    1        0.786800000000       7.788922616126       7.788922616126
        48    1        2.360400000000       5.563516154376       7.788922616126
        49    1        0.786800000000       5.563516154376      10.014329077876
        50    1        2.360400000000       7.788922616126      10.014329077876
        51    1        0.786800000000       7.788922616126      12.239735539627
        52    1        2.360400000000       5.563516154376      12.239735539627
        53    1        0.786800000000       5.563516154376      14.465142001377
        54    1        2.360400000000       7.788922616126      14.465142001377
        55    1        0.786800000000       7.788922616126      16.690548463127
        56    1        2.360400000000       5.563516154376      16.690548463127
        57    1        0.786800000000       5.563516154376      18.915954924878
        58    1        2.360400000000       7.788922616126      18.915954924878
        59    1        0.786800000000       7.788922616126      21.141361386628
        60    1        2.360400000000       5.563516154376      21.141361386628
        61    1        0.786800000000       5.563516154376      23.366767848378
        62    1        2.360400000000       7.788922616126      23.366767848378
        63    1        0.786800000000       7.788922616126      25.592174310129
        64    1        2.360400000000       5.563516154376      25.592174310129
        65    1        0.786800000000       5.563516154376      27.817580771879
        66    1        2.360400000000       7.788922616126      27.817580771879
        67    1        0.786800000000       7.788922616126      30.042987233629
        68    1        2.360400000000       5.563516154376      30.042987233629
        69    1        0.786800000000       5.563516154376      32.268393695379
        70    1        2.360400000000       7.788922616126      32.268393695379
        71    1        0.786800000000       7.788922616126      34.493800157130
        72    1        2.360400000000       5.563516154376      34.493800157130
        73    1        0.786800000000       5.563516154376      36.719206618880
        74    1        2.360400000000       7.788922616126      36.719206618880
        75    1        0.786800000000       7.788922616126      38.944613080630
        76    1        2.360400000000       5.563516154376      38.944613080630
        77    1        0.786800000000       5.563516154376      41.170019542381
        78    1        2.360400000000       7.788922616126      41.170019542381
        79    1        0.786800000000       7.788922616126      43.395426004131
        80    1        2.360400000000       5.563516154376      43.395426004131
        81    1        0.786800000000      10.014329077876       1.112703230875
        82    1        2.360400000000      12.239735539627       1.112703230875
        83    1        0.786800000000      12.239735539627       3.338109692625
        84    1        2.360400000000      10.014329077876       3.338109692625
        85    1        0.786800000000      10.014329077876       5.563516154376
        86    1        2.360400000000      12.239735539627       5.563516154376
        87    1        0.786800000000      12.239735539627       7.788922616126
        88    1        2.360400000000      10.014329077876       7.788922616126
        89    1        0.786800000000      10.014329077876      10.014329077876
        90    1        2.360400000000      12.239735539627      10.014329077876
        91    1        0.786800000000      12.239735539627      12.239735539627
        92    1        2.360400000000      10.014329077876      12.239735539627
        93    1        0.786800000000      10.014329077876      14.465142001377
        94    1        2.360400000000      12.239735539627      14.465142001377
        95    1        0.786800000000      12.239735539627      16.690548463127
        96    1        2.360400000000      10.014329077876      16.690548463127
        97    1        0.786800000000      10.014329077876      18.915954924878
        98    1        2.360400000000      12.239735539627      18.915954924878
        99    1        0.786800000000      12.239735539627      21.141361386628
       100    1        2.360400000000      10.014329077876      21.141361386628
       101    1        0.786800000000      10.014329077876      23.366767848378
       102    1        2.360400000000      12.239735539627      23.366767848378
       103    1        0.786800000000      12.239735539627      25.592174310129
       104    1        2.360400000000      10.014329077876      25.592174310129
       105    1        0.786800000000      10.014329077876      27.817580771879
       106    1        2.360400000000      12.239735539627      27.817580771879
       107    1        0.786800000000      12.239735539627      30.042987233629
       108    1        2.360400000000      10.014329077876      30.042987233629
       109    1        0.786800000000      10.014329077876      32.268393695379
       110    1        2.360400000000      12.239735539627      32.268393695379
       111    1        0.786800000000      12.239735539627      34.493800157130
       112    1        2.360400000000      10.014329077876      34.493800157130
       113    1        0.786800000000      10.014329077876      36.719206618880
       114    1        2.360400000000      12.239735539627      36.719206618880
       115    1        0.786800000000      12.239735539627      38.944613080630
       116    1        2.360400000000      10.014329077876      38.944613080630
       117    1        0.786800000000      10.014329077876      41.170019542381
       118    1        2.360400000000      12.239735539627      41.170019542381
       119    1        0.786800000000      12.239735539627      43.395426004131
       120    1        2.360400000000      10.014329077876      43.395426004131
       121    1        0.786800000000      14.465142001377       1.112703230875
       122    1        2.360400000000      16.690548463127       1.112703230875
       123    1        0.786800000000      16.690548463127       3.338109692625
       124    1        2.360400000000      14.465142001377       3.338109692625
       125    1        0.786800000000      14.465142001377       5.563516154376
       126    1        2.360400000000      16.690548463127       5.563516154376
       127    1        0.786800000000      16.690548463127       7.788922616126
       128    1        2.360400000000      14.465142001377       7.788922616126
       129    1        0.786800000000      14.465142001377      10.014329077876
       130    1        2.360400000000      16.690548463127      10.014329077876
       131    1        0.786800000000      16.690548463127      12.239735539627
       132    1        2.360400000000      14.465142001377      12.239735539627
       133    1        0.786800000000      14.465142001377      14.465142001377
       134    1        2.360400000000      16.690548463127      14.465142001377
       135    1        0.786800000000      16.690548463127      16.690548463127
       136    1        2.360400000000      14.465142001377      16.690548463127
       137    1        0.786800000000      14.465142001377      18.915954924878
       138    1        2.360400000000      16.690548463127      18.915954924878
       139    1        0.786800000000      16.690548463127      21.141361386628
       140    1        2.360400000000      14.465142001377      21.141361386628
       141    1        0.786800000000      14.465142001377      23.366767848378
       142    1        2.360400000000      16.690548463127      23.366767848378
       143    1        0.786800000000      16.690548463127      25.592174310129
       144    1        2.360400000000      14.465142001377      25.592174310129
       145    1        0.786800000000      14.465142001377      27.817580771879
       146    1        2.360400000000      16.690548463127      27.817580771879
       147    1        0.786800000000      16.690548463127      30.042987233629
       148    1        2.360400000000      14.465142001377      30.042987233629
       149    1        0.786800000000      14.465142001377      32.268393695379
       150    1        2.360400000000      16.690548463127      32.268393695379
       151    1        0.786800000000      16.690548463127      34.493800157130
       152    1        2.360400000000      14.465142001377      34.493800157130
       153    1        0.786800000000      14.465142001377      36.719206618880
       154    1        2.360400000000      16.690548463127      36.719206618880
       155    1        0.786800000000      16.690548463127      38.944613080630
       156    1        2.360400000000      14.465142001377      38.944613080630
       157    1        0.786800000000      14.465142001377      41.170019542381
       158    1        2.360400000000      16.690548463127      41.170019542381
       159    1        0.786800000000      16.690548463127      43.395426004131
       160    1        2.360400000000      14.465142001377      43.395426004131
       161    1        0.786800000000      18.915954924878       1.112703230875
       162    1        2.360400000000      21.141361386628       1.112703230875
       163    1        0.786800000000      21.141361386628       3.338109692625
       164    1        2.360400000000      18.915954924878       3.338109692625
       165    1        0.786800000000      18.915954924878       5.563516154376
       166    1        2.360400000000      21.141361386628       5.563516154376
       167    1        0.786800000000      21.141361386628       7.788922616126
       168    1        2.360400000000      18.915954924878       7.788922616126
       169    1        0.786800000000      18.915954924878      10.014329077876
       170    1        2.360400000000      21.141361386628      10.014329077876
       171    1        0.786800000000      21.141361386628      12.239735539627
       172    1        2.360400000000      18.915954924878      12.239735539627
       173    1        0.786800000000      18.915954924878      14.465142001377
       174    1        2.360400000000      21.141361386628      14.465142001377
       175    1        0.786800000000      21.141361386628      16.690548463127
       176    1        2.360400000000      18.915954924878      16.690548463127
       177    1        0.786800000000      18.915954924878      18.915954924878
       178    1        2.360400000000      21.141361386628      18.915954924878
       179    1        0.786800000000      21.141361386628      21.141361386628
       180    1        2.360400000000      18.915954924878      21.141361386628
       181    1        0.786800000000      18.915954924878      23.366767848378
       182    1        2.360400000000      21.141361386628      23.366767848378
       183    1        0.786800000000      21.141361386628      25.592174310129
       184    1        2.360400000000      18.915954924878      25.592174310129
       185    1        0.786800000000      18.915954924878      27.817580771879
       186    1        2.360400000000      21.141361386628      27.817580771879
       187    1        0.786800000000      21.141361386628      30.042987233629
       188    1        2.360400000000      18.915954924878      30.042987233629
       189    1        0.786800000000      18.915954924878      32.268393695379
       190    1        2.360400000000      21.141361386628      32.268393695379
       191    1        0.786800000000      21.141361386628      34.493800157130
       192    1        2.360400000000      18.915954924878      34.493800157130
       193    1        0.786800000000      18.915954924878      36.719206618880
       194    1        2.360400000000      21.141361386628      36.719206618880
       195    1        0.786800000000      21.141361386628      38.944613080630
       196    1        2.360400000000      18.915954924878      38.944613080630
       197    1        0.786800000000      18.915954924878      41.170019542381
       198    1        2.360400000000      21.141361386628      41.170019542381
       199    1        0.786800000000      21.141361386628      43.395426004131
       200    1        2.360400000000      18.915954924878      43.395426004131
       201    1        0.786800000000      23.366767848378       1.112703230875
       202    1        2.360400000000      25.592174310129       1.112703230875
       203    1        0.786800000000      25.592174310129       3.338109692625
       204    1        2.360400000000      23.366767848378       3.338109692625
       205    1        0.786800000000      23.366767848378       5.563516154376
       206    1        2.360400000000      25.592174310129       5.563516154376
       207    1        0.786800000000      25.592174310129       7.788922616126
       208    1        2.360400000000      23.366767848378       7.788922616126
       209    1        0.786800000000      23.366767848378      10.014329077876
       210    1        2.360400000000      25.592174310129      10.014329077876
       211    1        0.786800000000      25.592174310129      12.239735539627
       212    1        2.360400000000      23.366767848378      12.239735539627
       213    1        0.786800000000      23.366767848378      14.465142001377
       214    1        2.360400000000      25.592174310129      14.465142001377
       215    1        0.786800000000      25.592174310129      16.690548463127
       216    1        2.360400000000      23.366767848378      16.690548463127
       217    1        0.786800000000      23.366767848378      18.915954924878
       218    1        2.360400000000      25.592174310129      18.915954924878
       219    1        0.786800000000      25.592174310129      21.141361386628
       220    1        2.360400000000      23.366767848378      21.141361386628
       221    1        0.786800000000      23.366767848378      23.366767848378
       222    1        2.360400000000      25.592174310129      23.366767848378
       223    1        0.786800000000      25.592174310129      25.592174310129
       224    1        2.360400000000      23.366767848378      25.592174310129
       225    1        0.786800000000      23.366767848378      27.817580771879
       226    1        2.360400000000      25.592174310129      27.817580771879
       227    1        0.786800000000      25.592174310129      30.042987233629
       228    1        2.360400000000      23.366767848378      30.042987233629
       229    1        0.786800000000      23.366767848378      32.268393695379
       230    1        2.360400000000      25.592174310129      32.268393695379
       231    1        0.786800000000      25.592174310129      34.493800157130
       232    1        2.360400000000      23.366767848378      34.493800157130
       233    1        0.786800000000      23.366767848378      36.719206618880
       234    1        2.360400000000      25.592174310129      36.719206618880
       235    1        0.786800000000      25.592174310129      38.944613080630
       236    1        2.360400000000      23.366767848378      38.944613080630
       237    1        0.786800000000      23.366767848378      41.170019542381
       238    1        2.360400000000      25.592174310129      41.170019542381
       239    1        0.786800000000      25.592174310129      43.395426004131
       240    1        2.360400000000      23.366767848378      43.395426004131
       241    1        0.786800000000      27.817580771879       1.112703230875
       242    1        2.360400000000      30.042987233629       1.112703230875
       243    1        0.786800000000      30.042987233629       3.338109692625
       244    1        2.360400000000      27.817580771879       3.338109692625
       245    1        0.786800000000      27.817580771879       5.563516154376
       246    1        2.360400000000      30.042987233629       5.563516154376
       247    1        0.786800000000      30.042987233629       7.788922616126
       248    1        2.360400000000      27.817580771879       7.788922616126
       249    1        0.786800000000      27.817580771879      10.014329077876
       250    1        2.360400000000      30.042987233629      10.014329077876
       251    1        0.786800000000      30.042987233629      12.239735539627
       252    1        2.360400000000      27.817580771879      12.239735539627
       253    1        0.786800000000      27.817580771879      14.465142001377
       254    1        2.360400000000      30.042987233629      14.465142001377
       255    1        0.786800000000      30.042987233629      16.690548463127
       256    1        2.360400000000      27.817580771879      16.690548463127
       257    1        0.786800000000      27.817580771879      18.915954924878
       258    1        2.360400000000      30.042987233629      18.915954924878
       259    1        0.786800000000      30.042987233629      21.141361386628
       260    1        2.360400000000      27.817580771879      21.141361386628
       261    1        0.786800000000      27.817580771879      23.366767848378
       262    1        2.360400000000      30.042987233629      23.366767848378
       263    1        0.786800000000      30.042987233629      25.592174310129
       264    1        2.360400000000      27.817580771879      25.592174310129
       265    1        0.786800000000      27.817580771879      27.817580771879
       266    1        2.360400000000      30.042987233629      27.817580771879
       267    1        0.786800000000      30.042987233629      30.042987233629
       268    1        2.360400000000      27.817580771879      30.042987233629
       269    1        0.786800000000      27.817580771879      32.268393695379
       270    1        2.360400000000      30.042987233629      32.268393695379
       271    1        0.786800000000      30.042987233629      34.493800157130
       272    1        2.360400000000      27.817580771879      34.493800157130
       273    1        0.786800000000      27.817580771879      36.719206618880
       274    1        2.360400000000      30.042987233629      36.719206618880
       275    1        0.786800000000      30.042987233629      38.944613080630
       276    1        2.360400000000      27.817580771879      38.944613080630
       277    1        0.786800000000      27.817580771879      41.170019542381
       278    1        2.360400000000      30.042987233629      41.170019542381
       279    1        0.786800000000      30.042987233629      43.395426004131
       280    1        2.360400000000      27.817580771879      43.395426004131
       281    1        0.786800000000      32.268393695379       1.112703230875
       282    1        2.360400000000      34.493800157130       1.112703230875
       283    1        0.786800000000      34.493800157130       3.338109692625
       284    1        2.360400000000      32.268393695379       3.338109692625
       285    1        0.786800000000      32.268393695379       5.563516154376
       286    1        2.360400000000      34.493800157130       5.563516154376
       287    1        0.786800000000      34.493800157130       7.788922616126
       288    1        2.360400000000      32.268393695379       7.788922616126
       289    1        0.786800000000      32.268393695379      10.014329077876
       290    1        2.360400000000      34.493800157130      10.014329077876
       291    1        0.786800000000      34.493800157130      12.239735539627
       292    1        2.360400000000      32.268393695379      12.239735539627
       293    1        0.786800000000      32.268393695379      14.465142001377
       294    1        2.360400000000      34.493800157130      14.465142001377
       295    1        0.786800000000      34.493800157130      16.690548463127
       296    1        2.360400000000      32.268393695379      16.690548463127
       297    1        0.786800000000      32.268393695379      18.915954924878
       298    1        2.360400000000      34.493800157130      18.915954924878
       299    1        0.786800000000      34.493800157130      21.141361386628
       300    1        2.360400000000      32.268393695379      21.141361386628
       301    1        0.786800000000      32.268393695379      23.366767848378
       302    1        2.360400000000      34.493800157130      23.366767848378
       303    1        0.786800000000      34.493800157130      25.592174310129
       304    1        2.360400000000      32.268393695379      25.592174310129
       305    1        0.786800000000      32.268393695379      27.817580771879
       306    1        2.360400000000      34.493800157130      27.817580771879
       307    1        0.786800000000      34.493800157130      30.042987233629
       308    1        2.360400000000      32.268393695379      30.042987233629
       309    1        0.786800000000      32.268393695379      32.268393695379
       310    1        2.360400000000      34.493800157130      32.268393695379
       311    1        0.786800000000      34.493800157130      34.493800157130
       312    1        2.360400000000      32.268393695379      34.493800157130
       313    1        0.786800000000      32.268393695379      36.719206618880
       314    1        2.360400000000      34.493800157130      36.719206618880
       315    1        0.786800000000      34.493800157130      38.944613080630
       316    1        2.360400000000      32.268393695379      38.944613080630
       317    1        0.786800000000      32.268393695379      41.170019542381
       318    1        2.360400000000      34.493800157130      41.170019542381
       319    1        0.786800000000      34.493800157130      43.395426004131
       320    1        2.360400000000      32.268393695379      43.395426004131
       321    1        0.786800000000      36.719206618880       1.112703230875
       322    1        2.360400000000      38.944613080630       1.112703230875
       323    1        0.786800000000      38.944613080630       3.338109692625
       324    1        2.360400000000      36.719206618880       3.338109692625
       325    1        0.786800000000      36.719206618880       5.563516154376
       326    1        2.360400000000      38.944613080630       5.563516154376
       327    1        0.786800000000      38.944613080630       7.788922616126
       328    1        2.360400000000      36.719206618880       7.788922616126
       329    1        0.786800000000      36.719206618880      10.014329077876
       330    1        2.360400000000      38.944613080630      10.014329077876
       331    1        0.786800000000      38.944613080630      12.239735539627
       332    1        2.360400000000      36.719206618880      12.239735539627
       333    1        0.786800000000      36.719206618880      14.465142001377
       334    1        2.360400000000      38.944613080630      14.465142001377
       335    1        0.786800000000      38.944613080630      16.690548463127
       336    1        2.360400000000      36.719206618880      16.690548463127
       337    1        0.786800000000      36.719206618880      18.915954924878
       338    1        2.360400000000      38.944613080630      18.915954924878
       339    1        0.786800000000      38.944613080630      21.141361386628
       340    1        2.360400000000      36.719206618880      21.141361386628
       341    1        0.786800000000      36.719206618880      23.366767848378
       342    1        2.360400000000      38.944613080630      23.366767848378
       343    1        0.786800000000      38.944613080630      25.592174310129
       344    1        2.360400000000      36.719206618880      25.592174310129
       345    1        0.786800000000      36.719206618880      27.817580771879
       346    1        2.360400000000      38.944613080630      27.817580771879
       347    1        0.786800000000      38.944613080630      30.042987233629
       348    1        2.360400000000      36.719206618880      30.042987233629
       349    1        0.786800000000      36.719206618880      32.268393695379
       350    1        2.360400000000      38.944613080630      32.268393695379
       351    1        0.786800000000      38.944613080630      34.493800157130
       352    1        2.360400000000      36.719206618880      34.493800157130
       353    1        0.786800000000      36.719206618880      36.719206618880
       354    1        2.360400000000      38.944613080630      36.719206618880
       355    1        0.786800000000      38.944613080630      38.944613080630
       356    1        2.360400000000      36.719206618880      38.944613080630
       357    1        0.786800000000      36.719206618880      41.170019542381
       358    1        2.360400000000      38.944613080630      41.170019542381
       359    1        0.786800000000      38.944613080630      43.395426004131
       360    1        2.360400000000      36.719206618880      43.395426004131
       361    1        0.786800000000      41.170019542381       1.112703230875
       362    1        2.360400000000      43.395426004131       1.112703230875
       363    1        0.786800000000      43.395426004131       3.338109692625
       364    1        2.360400000000      41.170019542381       3.338109692625
       365    1        0.786800000000      41.170019542381       5.563516154376
       366    1        2.360400000000      43.395426004131       5.563516154376
       367    1        0.786800000000      43.395426004131       7.788922616126
       368    1        2.360400000000      41.170019542381       7.788922616126
       369    1        0.786800000000      41.170019542381      10.014329077876
       370    1        2.360400000000      43.395426004131      10.014329077876
       371    1        0.786800000000      43.395426004131      12.239735539627